+ 0.1 1 2 cbr 1000 ------- 3 1.0 2.0 0 0
- 0.1 1 2 cbr 1000 ------- 3 1.0 2.0 0 0
+ 0.100941 1 2 cbr 1000 ------- 3 1.0 2.0 1 1
- 0.100941 1 2 cbr 1000 ------- 3 1.0 2.0 1 1
+ 0.101882 1 2 cbr 1000 ------- 3 1.0 2.0 2 2
- 0.101882 1 2 cbr 1000 ------- 3 1.0 2.0 2 2
+ 0.102824 1 2 cbr 1000 ------- 3 1.0 2.0 3 3
- 0.102824 1 2 cbr 1000 ------- 3 1.0 2.0 3 3
+ 0.103765 1 2 cbr 1000 ------- 3 1.0 2.0 4 4
- 0.103765 1 2 cbr 1000 ------- 3 1.0 2.0 4 4
+ 0.104706 1 2 cbr 1000 ------- 3 1.0 2.0 5 5
- 0.104706 1 2 cbr 1000 ------- 3 1.0 2.0 5 5
+ 0.105647 1 2 cbr 1000 ------- 3 1.0 2.0 6 6
- 0.105647 1 2 cbr 1000 ------- 3 1.0 2.0 6 6
+ 0.106588 1 2 cbr 1000 ------- 3 1.0 2.0 7 7
- 0.106588 1 2 cbr 1000 ------- 3 1.0 2.0 7 7
+ 0.107529 1 2 cbr 1000 ------- 3 1.0 2.0 8 8
- 0.107529 1 2 cbr 1000 ------- 3 1.0 2.0 8 8
+ 0.108471 1 2 cbr 1000 ------- 3 1.0 2.0 9 9
- 0.108471 1 2 cbr 1000 ------- 3 1.0 2.0 9 9
+ 0.109412 1 2 cbr 1000 ------- 3 1.0 2.0 10 10
- 0.109412 1 2 cbr 1000 ------- 3 1.0 2.0 10 10
+ 0.110353 1 2 cbr 1000 ------- 3 1.0 2.0 11 11
- 0.110353 1 2 cbr 1000 ------- 3 1.0 2.0 11 11
r 0.1108 1 2 cbr 1000 ------- 3 1.0 2.0 0 0
+ 0.111294 1 2 cbr 1000 ------- 3 1.0 2.0 12 12
- 0.111294 1 2 cbr 1000 ------- 3 1.0 2.0 12 12
r 0.111741 1 2 cbr 1000 ------- 3 1.0 2.0 1 1
+ 0.112235 1 2 cbr 1000 ------- 3 1.0 2.0 13 13
- 0.112235 1 2 cbr 1000 ------- 3 1.0 2.0 13 13
r 0.112682 1 2 cbr 1000 ------- 3 1.0 2.0 2 2
+ 0.113176 1 2 cbr 1000 ------- 3 1.0 2.0 14 14
- 0.113176 1 2 cbr 1000 ------- 3 1.0 2.0 14 14
r 0.113624 1 2 cbr 1000 ------- 3 1.0 2.0 3 3
+ 0.114118 1 2 cbr 1000 ------- 3 1.0 2.0 15 15
- 0.114118 1 2 cbr 1000 ------- 3 1.0 2.0 15 15
r 0.114565 1 2 cbr 1000 ------- 3 1.0 2.0 4 4
+ 0.115059 1 2 cbr 1000 ------- 3 1.0 2.0 16 16
- 0.115059 1 2 cbr 1000 ------- 3 1.0 2.0 16 16
r 0.115506 1 2 cbr 1000 ------- 3 1.0 2.0 5 5
+ 0.116 1 2 cbr 1000 ------- 3 1.0 2.0 17 17
- 0.116 1 2 cbr 1000 ------- 3 1.0 2.0 17 17
r 0.116447 1 2 cbr 1000 ------- 3 1.0 2.0 6 6
+ 0.116941 1 2 cbr 1000 ------- 3 1.0 2.0 18 18
- 0.116941 1 2 cbr 1000 ------- 3 1.0 2.0 18 18
r 0.117388 1 2 cbr 1000 ------- 3 1.0 2.0 7 7
+ 0.117882 1 2 cbr 1000 ------- 3 1.0 2.0 19 19
- 0.117882 1 2 cbr 1000 ------- 3 1.0 2.0 19 19
r 0.118329 1 2 cbr 1000 ------- 3 1.0 2.0 8 8
+ 0.118824 1 2 cbr 1000 ------- 3 1.0 2.0 20 20
- 0.118824 1 2 cbr 1000 ------- 3 1.0 2.0 20 20
r 0.119271 1 2 cbr 1000 ------- 3 1.0 2.0 9 9
+ 0.119765 1 2 cbr 1000 ------- 3 1.0 2.0 21 21
- 0.119765 1 2 cbr 1000 ------- 3 1.0 2.0 21 21
r 0.120212 1 2 cbr 1000 ------- 3 1.0 2.0 10 10
+ 0.120706 1 2 cbr 1000 ------- 3 1.0 2.0 22 22
- 0.120706 1 2 cbr 1000 ------- 3 1.0 2.0 22 22
r 0.121153 1 2 cbr 1000 ------- 3 1.0 2.0 11 11
+ 0.121647 1 2 cbr 1000 ------- 3 1.0 2.0 23 23
- 0.121647 1 2 cbr 1000 ------- 3 1.0 2.0 23 23
r 0.122094 1 2 cbr 1000 ------- 3 1.0 2.0 12 12
+ 0.122588 1 2 cbr 1000 ------- 3 1.0 2.0 24 24
- 0.122588 1 2 cbr 1000 ------- 3 1.0 2.0 24 24
r 0.123035 1 2 cbr 1000 ------- 3 1.0 2.0 13 13
+ 0.123529 1 2 cbr 1000 ------- 3 1.0 2.0 25 25
- 0.123529 1 2 cbr 1000 ------- 3 1.0 2.0 25 25
r 0.123976 1 2 cbr 1000 ------- 3 1.0 2.0 14 14
+ 0.124471 1 2 cbr 1000 ------- 3 1.0 2.0 26 26
- 0.124471 1 2 cbr 1000 ------- 3 1.0 2.0 26 26
r 0.124918 1 2 cbr 1000 ------- 3 1.0 2.0 15 15
+ 0.125412 1 2 cbr 1000 ------- 3 1.0 2.0 27 27
- 0.125412 1 2 cbr 1000 ------- 3 1.0 2.0 27 27
r 0.125859 1 2 cbr 1000 ------- 3 1.0 2.0 16 16
+ 0.126353 1 2 cbr 1000 ------- 3 1.0 2.0 28 28
- 0.126353 1 2 cbr 1000 ------- 3 1.0 2.0 28 28
r 0.1268 1 2 cbr 1000 ------- 3 1.0 2.0 17 17
+ 0.127294 1 2 cbr 1000 ------- 3 1.0 2.0 29 29
- 0.127294 1 2 cbr 1000 ------- 3 1.0 2.0 29 29
r 0.127741 1 2 cbr 1000 ------- 3 1.0 2.0 18 18
+ 0.128235 1 2 cbr 1000 ------- 3 1.0 2.0 30 30
- 0.128235 1 2 cbr 1000 ------- 3 1.0 2.0 30 30
r 0.128682 1 2 cbr 1000 ------- 3 1.0 2.0 19 19
+ 0.129176 1 2 cbr 1000 ------- 3 1.0 2.0 31 31
- 0.129176 1 2 cbr 1000 ------- 3 1.0 2.0 31 31
r 0.129624 1 2 cbr 1000 ------- 3 1.0 2.0 20 20
+ 0.130118 1 2 cbr 1000 ------- 3 1.0 2.0 32 32
- 0.130118 1 2 cbr 1000 ------- 3 1.0 2.0 32 32
r 0.130565 1 2 cbr 1000 ------- 3 1.0 2.0 21 21
+ 0.131059 1 2 cbr 1000 ------- 3 1.0 2.0 33 33
- 0.131059 1 2 cbr 1000 ------- 3 1.0 2.0 33 33
r 0.131506 1 2 cbr 1000 ------- 3 1.0 2.0 22 22
+ 0.132 1 2 cbr 1000 ------- 3 1.0 2.0 34 34
- 0.132 1 2 cbr 1000 ------- 3 1.0 2.0 34 34
r 0.132447 1 2 cbr 1000 ------- 3 1.0 2.0 23 23
+ 0.132941 1 2 cbr 1000 ------- 3 1.0 2.0 35 35
- 0.132941 1 2 cbr 1000 ------- 3 1.0 2.0 35 35
r 0.133388 1 2 cbr 1000 ------- 3 1.0 2.0 24 24
+ 0.133882 1 2 cbr 1000 ------- 3 1.0 2.0 36 36
- 0.133882 1 2 cbr 1000 ------- 3 1.0 2.0 36 36
r 0.134329 1 2 cbr 1000 ------- 3 1.0 2.0 25 25
+ 0.134824 1 2 cbr 1000 ------- 3 1.0 2.0 37 37
- 0.134824 1 2 cbr 1000 ------- 3 1.0 2.0 37 37
r 0.135271 1 2 cbr 1000 ------- 3 1.0 2.0 26 26
+ 0.135765 1 2 cbr 1000 ------- 3 1.0 2.0 38 38
- 0.135765 1 2 cbr 1000 ------- 3 1.0 2.0 38 38
r 0.136212 1 2 cbr 1000 ------- 3 1.0 2.0 27 27
+ 0.136706 1 2 cbr 1000 ------- 3 1.0 2.0 39 39
- 0.136706 1 2 cbr 1000 ------- 3 1.0 2.0 39 39
r 0.137153 1 2 cbr 1000 ------- 3 1.0 2.0 28 28
+ 0.137647 1 2 cbr 1000 ------- 3 1.0 2.0 40 40
- 0.137647 1 2 cbr 1000 ------- 3 1.0 2.0 40 40
r 0.138094 1 2 cbr 1000 ------- 3 1.0 2.0 29 29
+ 0.138588 1 2 cbr 1000 ------- 3 1.0 2.0 41 41
- 0.138588 1 2 cbr 1000 ------- 3 1.0 2.0 41 41
r 0.139035 1 2 cbr 1000 ------- 3 1.0 2.0 30 30
+ 0.139529 1 2 cbr 1000 ------- 3 1.0 2.0 42 42
- 0.139529 1 2 cbr 1000 ------- 3 1.0 2.0 42 42
r 0.139976 1 2 cbr 1000 ------- 3 1.0 2.0 31 31
+ 0.140471 1 2 cbr 1000 ------- 3 1.0 2.0 43 43
- 0.140471 1 2 cbr 1000 ------- 3 1.0 2.0 43 43
r 0.140918 1 2 cbr 1000 ------- 3 1.0 2.0 32 32
+ 0.141412 1 2 cbr 1000 ------- 3 1.0 2.0 44 44
- 0.141412 1 2 cbr 1000 ------- 3 1.0 2.0 44 44
r 0.141859 1 2 cbr 1000 ------- 3 1.0 2.0 33 33
+ 0.142353 1 2 cbr 1000 ------- 3 1.0 2.0 45 45
- 0.142353 1 2 cbr 1000 ------- 3 1.0 2.0 45 45
r 0.1428 1 2 cbr 1000 ------- 3 1.0 2.0 34 34
+ 0.143294 1 2 cbr 1000 ------- 3 1.0 2.0 46 46
- 0.143294 1 2 cbr 1000 ------- 3 1.0 2.0 46 46
r 0.143741 1 2 cbr 1000 ------- 3 1.0 2.0 35 35
+ 0.144235 1 2 cbr 1000 ------- 3 1.0 2.0 47 47
- 0.144235 1 2 cbr 1000 ------- 3 1.0 2.0 47 47
r 0.144682 1 2 cbr 1000 ------- 3 1.0 2.0 36 36
+ 0.145176 1 2 cbr 1000 ------- 3 1.0 2.0 48 48
- 0.145176 1 2 cbr 1000 ------- 3 1.0 2.0 48 48
r 0.145624 1 2 cbr 1000 ------- 3 1.0 2.0 37 37
+ 0.146118 1 2 cbr 1000 ------- 3 1.0 2.0 49 49
- 0.146118 1 2 cbr 1000 ------- 3 1.0 2.0 49 49
r 0.146565 1 2 cbr 1000 ------- 3 1.0 2.0 38 38
+ 0.147059 1 2 cbr 1000 ------- 3 1.0 2.0 50 50
- 0.147059 1 2 cbr 1000 ------- 3 1.0 2.0 50 50
r 0.147506 1 2 cbr 1000 ------- 3 1.0 2.0 39 39
+ 0.148 1 2 cbr 1000 ------- 3 1.0 2.0 51 51
- 0.148 1 2 cbr 1000 ------- 3 1.0 2.0 51 51
r 0.148447 1 2 cbr 1000 ------- 3 1.0 2.0 40 40
+ 0.148941 1 2 cbr 1000 ------- 3 1.0 2.0 52 52
- 0.148941 1 2 cbr 1000 ------- 3 1.0 2.0 52 52
r 0.149388 1 2 cbr 1000 ------- 3 1.0 2.0 41 41
+ 0.149882 1 2 cbr 1000 ------- 3 1.0 2.0 53 53
- 0.149882 1 2 cbr 1000 ------- 3 1.0 2.0 53 53
r 0.150329 1 2 cbr 1000 ------- 3 1.0 2.0 42 42
+ 0.150824 1 2 cbr 1000 ------- 3 1.0 2.0 54 54
- 0.150824 1 2 cbr 1000 ------- 3 1.0 2.0 54 54
r 0.151271 1 2 cbr 1000 ------- 3 1.0 2.0 43 43
+ 0.151765 1 2 cbr 1000 ------- 3 1.0 2.0 55 55
- 0.151765 1 2 cbr 1000 ------- 3 1.0 2.0 55 55
r 0.152212 1 2 cbr 1000 ------- 3 1.0 2.0 44 44
+ 0.152706 1 2 cbr 1000 ------- 3 1.0 2.0 56 56
- 0.152706 1 2 cbr 1000 ------- 3 1.0 2.0 56 56
r 0.153153 1 2 cbr 1000 ------- 3 1.0 2.0 45 45
+ 0.153647 1 2 cbr 1000 ------- 3 1.0 2.0 57 57
- 0.153647 1 2 cbr 1000 ------- 3 1.0 2.0 57 57
r 0.154094 1 2 cbr 1000 ------- 3 1.0 2.0 46 46
+ 0.154588 1 2 cbr 1000 ------- 3 1.0 2.0 58 58
- 0.154588 1 2 cbr 1000 ------- 3 1.0 2.0 58 58
r 0.155035 1 2 cbr 1000 ------- 3 1.0 2.0 47 47
+ 0.155529 1 2 cbr 1000 ------- 3 1.0 2.0 59 59
- 0.155529 1 2 cbr 1000 ------- 3 1.0 2.0 59 59
r 0.155976 1 2 cbr 1000 ------- 3 1.0 2.0 48 48
+ 0.156471 1 2 cbr 1000 ------- 3 1.0 2.0 60 60
- 0.156471 1 2 cbr 1000 ------- 3 1.0 2.0 60 60
r 0.156918 1 2 cbr 1000 ------- 3 1.0 2.0 49 49
+ 0.157412 1 2 cbr 1000 ------- 3 1.0 2.0 61 61
- 0.157412 1 2 cbr 1000 ------- 3 1.0 2.0 61 61
r 0.157859 1 2 cbr 1000 ------- 3 1.0 2.0 50 50
+ 0.158353 1 2 cbr 1000 ------- 3 1.0 2.0 62 62
- 0.158353 1 2 cbr 1000 ------- 3 1.0 2.0 62 62
r 0.1588 1 2 cbr 1000 ------- 3 1.0 2.0 51 51
+ 0.159294 1 2 cbr 1000 ------- 3 1.0 2.0 63 63
- 0.159294 1 2 cbr 1000 ------- 3 1.0 2.0 63 63
r 0.159741 1 2 cbr 1000 ------- 3 1.0 2.0 52 52
+ 0.160235 1 2 cbr 1000 ------- 3 1.0 2.0 64 64
- 0.160235 1 2 cbr 1000 ------- 3 1.0 2.0 64 64
r 0.160682 1 2 cbr 1000 ------- 3 1.0 2.0 53 53
+ 0.161176 1 2 cbr 1000 ------- 3 1.0 2.0 65 65
- 0.161176 1 2 cbr 1000 ------- 3 1.0 2.0 65 65
r 0.161624 1 2 cbr 1000 ------- 3 1.0 2.0 54 54
+ 0.162118 1 2 cbr 1000 ------- 3 1.0 2.0 66 66
- 0.162118 1 2 cbr 1000 ------- 3 1.0 2.0 66 66
r 0.162565 1 2 cbr 1000 ------- 3 1.0 2.0 55 55
+ 0.163059 1 2 cbr 1000 ------- 3 1.0 2.0 67 67
- 0.163059 1 2 cbr 1000 ------- 3 1.0 2.0 67 67
r 0.163506 1 2 cbr 1000 ------- 3 1.0 2.0 56 56
+ 0.164 1 2 cbr 1000 ------- 3 1.0 2.0 68 68
- 0.164 1 2 cbr 1000 ------- 3 1.0 2.0 68 68
r 0.164447 1 2 cbr 1000 ------- 3 1.0 2.0 57 57
+ 0.164941 1 2 cbr 1000 ------- 3 1.0 2.0 69 69
- 0.164941 1 2 cbr 1000 ------- 3 1.0 2.0 69 69
r 0.165388 1 2 cbr 1000 ------- 3 1.0 2.0 58 58
+ 0.165882 1 2 cbr 1000 ------- 3 1.0 2.0 70 70
- 0.165882 1 2 cbr 1000 ------- 3 1.0 2.0 70 70
r 0.166329 1 2 cbr 1000 ------- 3 1.0 2.0 59 59
+ 0.166824 1 2 cbr 1000 ------- 3 1.0 2.0 71 71
- 0.166824 1 2 cbr 1000 ------- 3 1.0 2.0 71 71
r 0.167271 1 2 cbr 1000 ------- 3 1.0 2.0 60 60
+ 0.167765 1 2 cbr 1000 ------- 3 1.0 2.0 72 72
- 0.167765 1 2 cbr 1000 ------- 3 1.0 2.0 72 72
r 0.168212 1 2 cbr 1000 ------- 3 1.0 2.0 61 61
+ 0.168706 1 2 cbr 1000 ------- 3 1.0 2.0 73 73
- 0.168706 1 2 cbr 1000 ------- 3 1.0 2.0 73 73
r 0.169153 1 2 cbr 1000 ------- 3 1.0 2.0 62 62
+ 0.169647 1 2 cbr 1000 ------- 3 1.0 2.0 74 74
- 0.169647 1 2 cbr 1000 ------- 3 1.0 2.0 74 74
r 0.170094 1 2 cbr 1000 ------- 3 1.0 2.0 63 63
+ 0.170588 1 2 cbr 1000 ------- 3 1.0 2.0 75 75
- 0.170588 1 2 cbr 1000 ------- 3 1.0 2.0 75 75
r 0.171035 1 2 cbr 1000 ------- 3 1.0 2.0 64 64
+ 0.171529 1 2 cbr 1000 ------- 3 1.0 2.0 76 76
- 0.171529 1 2 cbr 1000 ------- 3 1.0 2.0 76 76
r 0.171976 1 2 cbr 1000 ------- 3 1.0 2.0 65 65
+ 0.172471 1 2 cbr 1000 ------- 3 1.0 2.0 77 77
- 0.172471 1 2 cbr 1000 ------- 3 1.0 2.0 77 77
r 0.172918 1 2 cbr 1000 ------- 3 1.0 2.0 66 66
+ 0.173412 1 2 cbr 1000 ------- 3 1.0 2.0 78 78
- 0.173412 1 2 cbr 1000 ------- 3 1.0 2.0 78 78
r 0.173859 1 2 cbr 1000 ------- 3 1.0 2.0 67 67
+ 0.174353 1 2 cbr 1000 ------- 3 1.0 2.0 79 79
- 0.174353 1 2 cbr 1000 ------- 3 1.0 2.0 79 79
r 0.1748 1 2 cbr 1000 ------- 3 1.0 2.0 68 68
+ 0.175294 1 2 cbr 1000 ------- 3 1.0 2.0 80 80
- 0.175294 1 2 cbr 1000 ------- 3 1.0 2.0 80 80
r 0.175741 1 2 cbr 1000 ------- 3 1.0 2.0 69 69
+ 0.176235 1 2 cbr 1000 ------- 3 1.0 2.0 81 81
- 0.176235 1 2 cbr 1000 ------- 3 1.0 2.0 81 81
r 0.176682 1 2 cbr 1000 ------- 3 1.0 2.0 70 70
+ 0.177176 1 2 cbr 1000 ------- 3 1.0 2.0 82 82
- 0.177176 1 2 cbr 1000 ------- 3 1.0 2.0 82 82
r 0.177624 1 2 cbr 1000 ------- 3 1.0 2.0 71 71
+ 0.178118 1 2 cbr 1000 ------- 3 1.0 2.0 83 83
- 0.178118 1 2 cbr 1000 ------- 3 1.0 2.0 83 83
r 0.178565 1 2 cbr 1000 ------- 3 1.0 2.0 72 72
+ 0.179059 1 2 cbr 1000 ------- 3 1.0 2.0 84 84
- 0.179059 1 2 cbr 1000 ------- 3 1.0 2.0 84 84
r 0.179506 1 2 cbr 1000 ------- 3 1.0 2.0 73 73
+ 0.18 1 2 cbr 1000 ------- 3 1.0 2.0 85 85
- 0.18 1 2 cbr 1000 ------- 3 1.0 2.0 85 85
r 0.180447 1 2 cbr 1000 ------- 3 1.0 2.0 74 74
+ 0.180941 1 2 cbr 1000 ------- 3 1.0 2.0 86 86
- 0.180941 1 2 cbr 1000 ------- 3 1.0 2.0 86 86
r 0.181388 1 2 cbr 1000 ------- 3 1.0 2.0 75 75
+ 0.181882 1 2 cbr 1000 ------- 3 1.0 2.0 87 87
- 0.181882 1 2 cbr 1000 ------- 3 1.0 2.0 87 87
r 0.182329 1 2 cbr 1000 ------- 3 1.0 2.0 76 76
+ 0.182824 1 2 cbr 1000 ------- 3 1.0 2.0 88 88
- 0.182824 1 2 cbr 1000 ------- 3 1.0 2.0 88 88
r 0.183271 1 2 cbr 1000 ------- 3 1.0 2.0 77 77
+ 0.183765 1 2 cbr 1000 ------- 3 1.0 2.0 89 89
- 0.183765 1 2 cbr 1000 ------- 3 1.0 2.0 89 89
r 0.184212 1 2 cbr 1000 ------- 3 1.0 2.0 78 78
+ 0.184706 1 2 cbr 1000 ------- 3 1.0 2.0 90 90
- 0.184706 1 2 cbr 1000 ------- 3 1.0 2.0 90 90
r 0.185153 1 2 cbr 1000 ------- 3 1.0 2.0 79 79
+ 0.185647 1 2 cbr 1000 ------- 3 1.0 2.0 91 91
- 0.185647 1 2 cbr 1000 ------- 3 1.0 2.0 91 91
r 0.186094 1 2 cbr 1000 ------- 3 1.0 2.0 80 80
+ 0.186588 1 2 cbr 1000 ------- 3 1.0 2.0 92 92
- 0.186588 1 2 cbr 1000 ------- 3 1.0 2.0 92 92
r 0.187035 1 2 cbr 1000 ------- 3 1.0 2.0 81 81
+ 0.187529 1 2 cbr 1000 ------- 3 1.0 2.0 93 93
- 0.187529 1 2 cbr 1000 ------- 3 1.0 2.0 93 93
r 0.187976 1 2 cbr 1000 ------- 3 1.0 2.0 82 82
+ 0.188471 1 2 cbr 1000 ------- 3 1.0 2.0 94 94
- 0.188471 1 2 cbr 1000 ------- 3 1.0 2.0 94 94
r 0.188918 1 2 cbr 1000 ------- 3 1.0 2.0 83 83
+ 0.189412 1 2 cbr 1000 ------- 3 1.0 2.0 95 95
- 0.189412 1 2 cbr 1000 ------- 3 1.0 2.0 95 95
r 0.189859 1 2 cbr 1000 ------- 3 1.0 2.0 84 84
+ 0.190353 1 2 cbr 1000 ------- 3 1.0 2.0 96 96
- 0.190353 1 2 cbr 1000 ------- 3 1.0 2.0 96 96
r 0.1908 1 2 cbr 1000 ------- 3 1.0 2.0 85 85
+ 0.191294 1 2 cbr 1000 ------- 3 1.0 2.0 97 97
- 0.191294 1 2 cbr 1000 ------- 3 1.0 2.0 97 97
r 0.191741 1 2 cbr 1000 ------- 3 1.0 2.0 86 86
+ 0.192235 1 2 cbr 1000 ------- 3 1.0 2.0 98 98
- 0.192235 1 2 cbr 1000 ------- 3 1.0 2.0 98 98
r 0.192682 1 2 cbr 1000 ------- 3 1.0 2.0 87 87
+ 0.193176 1 2 cbr 1000 ------- 3 1.0 2.0 99 99
- 0.193176 1 2 cbr 1000 ------- 3 1.0 2.0 99 99
r 0.193624 1 2 cbr 1000 ------- 3 1.0 2.0 88 88
+ 0.194118 1 2 cbr 1000 ------- 3 1.0 2.0 100 100
- 0.194118 1 2 cbr 1000 ------- 3 1.0 2.0 100 100
r 0.194565 1 2 cbr 1000 ------- 3 1.0 2.0 89 89
+ 0.195059 1 2 cbr 1000 ------- 3 1.0 2.0 101 101
- 0.195059 1 2 cbr 1000 ------- 3 1.0 2.0 101 101
r 0.195506 1 2 cbr 1000 ------- 3 1.0 2.0 90 90
+ 0.196 1 2 cbr 1000 ------- 3 1.0 2.0 102 102
- 0.196 1 2 cbr 1000 ------- 3 1.0 2.0 102 102
r 0.196447 1 2 cbr 1000 ------- 3 1.0 2.0 91 91
+ 0.196941 1 2 cbr 1000 ------- 3 1.0 2.0 103 103
- 0.196941 1 2 cbr 1000 ------- 3 1.0 2.0 103 103
r 0.197388 1 2 cbr 1000 ------- 3 1.0 2.0 92 92
+ 0.197882 1 2 cbr 1000 ------- 3 1.0 2.0 104 104
- 0.197882 1 2 cbr 1000 ------- 3 1.0 2.0 104 104
r 0.198329 1 2 cbr 1000 ------- 3 1.0 2.0 93 93
+ 0.198824 1 2 cbr 1000 ------- 3 1.0 2.0 105 105
- 0.198824 1 2 cbr 1000 ------- 3 1.0 2.0 105 105
r 0.199271 1 2 cbr 1000 ------- 3 1.0 2.0 94 94
+ 0.199765 1 2 cbr 1000 ------- 3 1.0 2.0 106 106
- 0.199765 1 2 cbr 1000 ------- 3 1.0 2.0 106 106
r 0.200212 1 2 cbr 1000 ------- 3 1.0 2.0 95 95
+ 0.200706 1 2 cbr 1000 ------- 3 1.0 2.0 107 107
- 0.200706 1 2 cbr 1000 ------- 3 1.0 2.0 107 107
r 0.201153 1 2 cbr 1000 ------- 3 1.0 2.0 96 96
+ 0.201647 1 2 cbr 1000 ------- 3 1.0 2.0 108 108
- 0.201647 1 2 cbr 1000 ------- 3 1.0 2.0 108 108
r 0.202094 1 2 cbr 1000 ------- 3 1.0 2.0 97 97
+ 0.202588 1 2 cbr 1000 ------- 3 1.0 2.0 109 109
- 0.202588 1 2 cbr 1000 ------- 3 1.0 2.0 109 109
r 0.203035 1 2 cbr 1000 ------- 3 1.0 2.0 98 98
+ 0.203529 1 2 cbr 1000 ------- 3 1.0 2.0 110 110
- 0.203529 1 2 cbr 1000 ------- 3 1.0 2.0 110 110
r 0.203976 1 2 cbr 1000 ------- 3 1.0 2.0 99 99
+ 0.204471 1 2 cbr 1000 ------- 3 1.0 2.0 111 111
- 0.204471 1 2 cbr 1000 ------- 3 1.0 2.0 111 111
r 0.204918 1 2 cbr 1000 ------- 3 1.0 2.0 100 100
+ 0.205412 1 2 cbr 1000 ------- 3 1.0 2.0 112 112
- 0.205412 1 2 cbr 1000 ------- 3 1.0 2.0 112 112
r 0.205859 1 2 cbr 1000 ------- 3 1.0 2.0 101 101
+ 0.206353 1 2 cbr 1000 ------- 3 1.0 2.0 113 113
- 0.206353 1 2 cbr 1000 ------- 3 1.0 2.0 113 113
r 0.2068 1 2 cbr 1000 ------- 3 1.0 2.0 102 102
+ 0.207294 1 2 cbr 1000 ------- 3 1.0 2.0 114 114
- 0.207294 1 2 cbr 1000 ------- 3 1.0 2.0 114 114
r 0.207741 1 2 cbr 1000 ------- 3 1.0 2.0 103 103
+ 0.208235 1 2 cbr 1000 ------- 3 1.0 2.0 115 115
- 0.208235 1 2 cbr 1000 ------- 3 1.0 2.0 115 115
r 0.208682 1 2 cbr 1000 ------- 3 1.0 2.0 104 104
+ 0.209176 1 2 cbr 1000 ------- 3 1.0 2.0 116 116
- 0.209176 1 2 cbr 1000 ------- 3 1.0 2.0 116 116
r 0.209624 1 2 cbr 1000 ------- 3 1.0 2.0 105 105
+ 0.210118 1 2 cbr 1000 ------- 3 1.0 2.0 117 117
- 0.210118 1 2 cbr 1000 ------- 3 1.0 2.0 117 117
r 0.210565 1 2 cbr 1000 ------- 3 1.0 2.0 106 106
+ 0.211059 1 2 cbr 1000 ------- 3 1.0 2.0 118 118
- 0.211059 1 2 cbr 1000 ------- 3 1.0 2.0 118 118
r 0.211506 1 2 cbr 1000 ------- 3 1.0 2.0 107 107
+ 0.212 1 2 cbr 1000 ------- 3 1.0 2.0 119 119
- 0.212 1 2 cbr 1000 ------- 3 1.0 2.0 119 119
r 0.212447 1 2 cbr 1000 ------- 3 1.0 2.0 108 108
+ 0.212941 1 2 cbr 1000 ------- 3 1.0 2.0 120 120
- 0.212941 1 2 cbr 1000 ------- 3 1.0 2.0 120 120
r 0.213388 1 2 cbr 1000 ------- 3 1.0 2.0 109 109
+ 0.213882 1 2 cbr 1000 ------- 3 1.0 2.0 121 121
- 0.213882 1 2 cbr 1000 ------- 3 1.0 2.0 121 121
r 0.214329 1 2 cbr 1000 ------- 3 1.0 2.0 110 110
+ 0.214824 1 2 cbr 1000 ------- 3 1.0 2.0 122 122
- 0.214824 1 2 cbr 1000 ------- 3 1.0 2.0 122 122
r 0.215271 1 2 cbr 1000 ------- 3 1.0 2.0 111 111
+ 0.215765 1 2 cbr 1000 ------- 3 1.0 2.0 123 123
- 0.215765 1 2 cbr 1000 ------- 3 1.0 2.0 123 123
r 0.216212 1 2 cbr 1000 ------- 3 1.0 2.0 112 112
+ 0.216706 1 2 cbr 1000 ------- 3 1.0 2.0 124 124
- 0.216706 1 2 cbr 1000 ------- 3 1.0 2.0 124 124
r 0.217153 1 2 cbr 1000 ------- 3 1.0 2.0 113 113
+ 0.217647 1 2 cbr 1000 ------- 3 1.0 2.0 125 125
- 0.217647 1 2 cbr 1000 ------- 3 1.0 2.0 125 125
r 0.218094 1 2 cbr 1000 ------- 3 1.0 2.0 114 114
+ 0.218588 1 2 cbr 1000 ------- 3 1.0 2.0 126 126
- 0.218588 1 2 cbr 1000 ------- 3 1.0 2.0 126 126
r 0.219035 1 2 cbr 1000 ------- 3 1.0 2.0 115 115
+ 0.219529 1 2 cbr 1000 ------- 3 1.0 2.0 127 127
- 0.219529 1 2 cbr 1000 ------- 3 1.0 2.0 127 127
r 0.219976 1 2 cbr 1000 ------- 3 1.0 2.0 116 116
+ 0.220471 1 2 cbr 1000 ------- 3 1.0 2.0 128 128
- 0.220471 1 2 cbr 1000 ------- 3 1.0 2.0 128 128
r 0.220918 1 2 cbr 1000 ------- 3 1.0 2.0 117 117
+ 0.221412 1 2 cbr 1000 ------- 3 1.0 2.0 129 129
- 0.221412 1 2 cbr 1000 ------- 3 1.0 2.0 129 129
r 0.221859 1 2 cbr 1000 ------- 3 1.0 2.0 118 118
+ 0.222353 1 2 cbr 1000 ------- 3 1.0 2.0 130 130
- 0.222353 1 2 cbr 1000 ------- 3 1.0 2.0 130 130
r 0.2228 1 2 cbr 1000 ------- 3 1.0 2.0 119 119
+ 0.223294 1 2 cbr 1000 ------- 3 1.0 2.0 131 131
- 0.223294 1 2 cbr 1000 ------- 3 1.0 2.0 131 131
r 0.223741 1 2 cbr 1000 ------- 3 1.0 2.0 120 120
+ 0.224235 1 2 cbr 1000 ------- 3 1.0 2.0 132 132
- 0.224235 1 2 cbr 1000 ------- 3 1.0 2.0 132 132
r 0.224682 1 2 cbr 1000 ------- 3 1.0 2.0 121 121
+ 0.225176 1 2 cbr 1000 ------- 3 1.0 2.0 133 133
- 0.225176 1 2 cbr 1000 ------- 3 1.0 2.0 133 133
r 0.225624 1 2 cbr 1000 ------- 3 1.0 2.0 122 122
+ 0.226118 1 2 cbr 1000 ------- 3 1.0 2.0 134 134
- 0.226118 1 2 cbr 1000 ------- 3 1.0 2.0 134 134
r 0.226565 1 2 cbr 1000 ------- 3 1.0 2.0 123 123
+ 0.227059 1 2 cbr 1000 ------- 3 1.0 2.0 135 135
- 0.227059 1 2 cbr 1000 ------- 3 1.0 2.0 135 135
r 0.227506 1 2 cbr 1000 ------- 3 1.0 2.0 124 124
+ 0.228 1 2 cbr 1000 ------- 3 1.0 2.0 136 136
- 0.228 1 2 cbr 1000 ------- 3 1.0 2.0 136 136
r 0.228447 1 2 cbr 1000 ------- 3 1.0 2.0 125 125
+ 0.228941 1 2 cbr 1000 ------- 3 1.0 2.0 137 137
- 0.228941 1 2 cbr 1000 ------- 3 1.0 2.0 137 137
r 0.229388 1 2 cbr 1000 ------- 3 1.0 2.0 126 126
+ 0.229882 1 2 cbr 1000 ------- 3 1.0 2.0 138 138
- 0.229882 1 2 cbr 1000 ------- 3 1.0 2.0 138 138
r 0.230329 1 2 cbr 1000 ------- 3 1.0 2.0 127 127
+ 0.230824 1 2 cbr 1000 ------- 3 1.0 2.0 139 139
- 0.230824 1 2 cbr 1000 ------- 3 1.0 2.0 139 139
r 0.231271 1 2 cbr 1000 ------- 3 1.0 2.0 128 128
+ 0.231765 1 2 cbr 1000 ------- 3 1.0 2.0 140 140
- 0.231765 1 2 cbr 1000 ------- 3 1.0 2.0 140 140
r 0.232212 1 2 cbr 1000 ------- 3 1.0 2.0 129 129
+ 0.232706 1 2 cbr 1000 ------- 3 1.0 2.0 141 141
- 0.232706 1 2 cbr 1000 ------- 3 1.0 2.0 141 141
r 0.233153 1 2 cbr 1000 ------- 3 1.0 2.0 130 130
+ 0.233647 1 2 cbr 1000 ------- 3 1.0 2.0 142 142
- 0.233647 1 2 cbr 1000 ------- 3 1.0 2.0 142 142
r 0.234094 1 2 cbr 1000 ------- 3 1.0 2.0 131 131
+ 0.234588 1 2 cbr 1000 ------- 3 1.0 2.0 143 143
- 0.234588 1 2 cbr 1000 ------- 3 1.0 2.0 143 143
r 0.235035 1 2 cbr 1000 ------- 3 1.0 2.0 132 132
+ 0.235529 1 2 cbr 1000 ------- 3 1.0 2.0 144 144
- 0.235529 1 2 cbr 1000 ------- 3 1.0 2.0 144 144
r 0.235976 1 2 cbr 1000 ------- 3 1.0 2.0 133 133
+ 0.236471 1 2 cbr 1000 ------- 3 1.0 2.0 145 145
- 0.236471 1 2 cbr 1000 ------- 3 1.0 2.0 145 145
r 0.236918 1 2 cbr 1000 ------- 3 1.0 2.0 134 134
+ 0.237412 1 2 cbr 1000 ------- 3 1.0 2.0 146 146
- 0.237412 1 2 cbr 1000 ------- 3 1.0 2.0 146 146
r 0.237859 1 2 cbr 1000 ------- 3 1.0 2.0 135 135
+ 0.238353 1 2 cbr 1000 ------- 3 1.0 2.0 147 147
- 0.238353 1 2 cbr 1000 ------- 3 1.0 2.0 147 147
r 0.2388 1 2 cbr 1000 ------- 3 1.0 2.0 136 136
+ 0.239294 1 2 cbr 1000 ------- 3 1.0 2.0 148 148
- 0.239294 1 2 cbr 1000 ------- 3 1.0 2.0 148 148
r 0.239741 1 2 cbr 1000 ------- 3 1.0 2.0 137 137
+ 0.240235 1 2 cbr 1000 ------- 3 1.0 2.0 149 149
- 0.240235 1 2 cbr 1000 ------- 3 1.0 2.0 149 149
r 0.240682 1 2 cbr 1000 ------- 3 1.0 2.0 138 138
+ 0.241176 1 2 cbr 1000 ------- 3 1.0 2.0 150 150
- 0.241176 1 2 cbr 1000 ------- 3 1.0 2.0 150 150
r 0.241624 1 2 cbr 1000 ------- 3 1.0 2.0 139 139
+ 0.242118 1 2 cbr 1000 ------- 3 1.0 2.0 151 151
- 0.242118 1 2 cbr 1000 ------- 3 1.0 2.0 151 151
r 0.242565 1 2 cbr 1000 ------- 3 1.0 2.0 140 140
+ 0.243059 1 2 cbr 1000 ------- 3 1.0 2.0 152 152
- 0.243059 1 2 cbr 1000 ------- 3 1.0 2.0 152 152
r 0.243506 1 2 cbr 1000 ------- 3 1.0 2.0 141 141
+ 0.244 1 2 cbr 1000 ------- 3 1.0 2.0 153 153
- 0.244 1 2 cbr 1000 ------- 3 1.0 2.0 153 153
r 0.244447 1 2 cbr 1000 ------- 3 1.0 2.0 142 142
+ 0.244941 1 2 cbr 1000 ------- 3 1.0 2.0 154 154
- 0.244941 1 2 cbr 1000 ------- 3 1.0 2.0 154 154
r 0.245388 1 2 cbr 1000 ------- 3 1.0 2.0 143 143
+ 0.245882 1 2 cbr 1000 ------- 3 1.0 2.0 155 155
- 0.245882 1 2 cbr 1000 ------- 3 1.0 2.0 155 155
r 0.246329 1 2 cbr 1000 ------- 3 1.0 2.0 144 144
+ 0.246824 1 2 cbr 1000 ------- 3 1.0 2.0 156 156
- 0.246824 1 2 cbr 1000 ------- 3 1.0 2.0 156 156
r 0.247271 1 2 cbr 1000 ------- 3 1.0 2.0 145 145
+ 0.247765 1 2 cbr 1000 ------- 3 1.0 2.0 157 157
- 0.247765 1 2 cbr 1000 ------- 3 1.0 2.0 157 157
r 0.248212 1 2 cbr 1000 ------- 3 1.0 2.0 146 146
+ 0.248706 1 2 cbr 1000 ------- 3 1.0 2.0 158 158
- 0.248706 1 2 cbr 1000 ------- 3 1.0 2.0 158 158
r 0.249153 1 2 cbr 1000 ------- 3 1.0 2.0 147 147
+ 0.249647 1 2 cbr 1000 ------- 3 1.0 2.0 159 159
- 0.249647 1 2 cbr 1000 ------- 3 1.0 2.0 159 159
r 0.250094 1 2 cbr 1000 ------- 3 1.0 2.0 148 148
+ 0.250588 1 2 cbr 1000 ------- 3 1.0 2.0 160 160
- 0.250588 1 2 cbr 1000 ------- 3 1.0 2.0 160 160
r 0.251035 1 2 cbr 1000 ------- 3 1.0 2.0 149 149
+ 0.251529 1 2 cbr 1000 ------- 3 1.0 2.0 161 161
- 0.251529 1 2 cbr 1000 ------- 3 1.0 2.0 161 161
r 0.251976 1 2 cbr 1000 ------- 3 1.0 2.0 150 150
+ 0.252471 1 2 cbr 1000 ------- 3 1.0 2.0 162 162
- 0.252471 1 2 cbr 1000 ------- 3 1.0 2.0 162 162
r 0.252918 1 2 cbr 1000 ------- 3 1.0 2.0 151 151
+ 0.253412 1 2 cbr 1000 ------- 3 1.0 2.0 163 163
- 0.253412 1 2 cbr 1000 ------- 3 1.0 2.0 163 163
r 0.253859 1 2 cbr 1000 ------- 3 1.0 2.0 152 152
+ 0.254353 1 2 cbr 1000 ------- 3 1.0 2.0 164 164
- 0.254353 1 2 cbr 1000 ------- 3 1.0 2.0 164 164
r 0.2548 1 2 cbr 1000 ------- 3 1.0 2.0 153 153
+ 0.255294 1 2 cbr 1000 ------- 3 1.0 2.0 165 165
- 0.255294 1 2 cbr 1000 ------- 3 1.0 2.0 165 165
r 0.255741 1 2 cbr 1000 ------- 3 1.0 2.0 154 154
+ 0.256235 1 2 cbr 1000 ------- 3 1.0 2.0 166 166
- 0.256235 1 2 cbr 1000 ------- 3 1.0 2.0 166 166
r 0.256682 1 2 cbr 1000 ------- 3 1.0 2.0 155 155
+ 0.257176 1 2 cbr 1000 ------- 3 1.0 2.0 167 167
- 0.257176 1 2 cbr 1000 ------- 3 1.0 2.0 167 167
r 0.257624 1 2 cbr 1000 ------- 3 1.0 2.0 156 156
+ 0.258118 1 2 cbr 1000 ------- 3 1.0 2.0 168 168
- 0.258118 1 2 cbr 1000 ------- 3 1.0 2.0 168 168
r 0.258565 1 2 cbr 1000 ------- 3 1.0 2.0 157 157
+ 0.259059 1 2 cbr 1000 ------- 3 1.0 2.0 169 169
- 0.259059 1 2 cbr 1000 ------- 3 1.0 2.0 169 169
r 0.259506 1 2 cbr 1000 ------- 3 1.0 2.0 158 158
+ 0.26 1 2 cbr 1000 ------- 3 1.0 2.0 170 170
- 0.26 1 2 cbr 1000 ------- 3 1.0 2.0 170 170
r 0.260447 1 2 cbr 1000 ------- 3 1.0 2.0 159 159
+ 0.260941 1 2 cbr 1000 ------- 3 1.0 2.0 171 171
- 0.260941 1 2 cbr 1000 ------- 3 1.0 2.0 171 171
r 0.261388 1 2 cbr 1000 ------- 3 1.0 2.0 160 160
+ 0.261882 1 2 cbr 1000 ------- 3 1.0 2.0 172 172
- 0.261882 1 2 cbr 1000 ------- 3 1.0 2.0 172 172
r 0.262329 1 2 cbr 1000 ------- 3 1.0 2.0 161 161
+ 0.262824 1 2 cbr 1000 ------- 3 1.0 2.0 173 173
- 0.262824 1 2 cbr 1000 ------- 3 1.0 2.0 173 173
r 0.263271 1 2 cbr 1000 ------- 3 1.0 2.0 162 162
+ 0.263765 1 2 cbr 1000 ------- 3 1.0 2.0 174 174
- 0.263765 1 2 cbr 1000 ------- 3 1.0 2.0 174 174
r 0.264212 1 2 cbr 1000 ------- 3 1.0 2.0 163 163
+ 0.264706 1 2 cbr 1000 ------- 3 1.0 2.0 175 175
- 0.264706 1 2 cbr 1000 ------- 3 1.0 2.0 175 175
r 0.265153 1 2 cbr 1000 ------- 3 1.0 2.0 164 164
+ 0.265647 1 2 cbr 1000 ------- 3 1.0 2.0 176 176
- 0.265647 1 2 cbr 1000 ------- 3 1.0 2.0 176 176
r 0.266094 1 2 cbr 1000 ------- 3 1.0 2.0 165 165
+ 0.266588 1 2 cbr 1000 ------- 3 1.0 2.0 177 177
- 0.266588 1 2 cbr 1000 ------- 3 1.0 2.0 177 177
r 0.267035 1 2 cbr 1000 ------- 3 1.0 2.0 166 166
+ 0.267529 1 2 cbr 1000 ------- 3 1.0 2.0 178 178
- 0.267529 1 2 cbr 1000 ------- 3 1.0 2.0 178 178
r 0.267976 1 2 cbr 1000 ------- 3 1.0 2.0 167 167
+ 0.268471 1 2 cbr 1000 ------- 3 1.0 2.0 179 179
- 0.268471 1 2 cbr 1000 ------- 3 1.0 2.0 179 179
r 0.268918 1 2 cbr 1000 ------- 3 1.0 2.0 168 168
+ 0.269412 1 2 cbr 1000 ------- 3 1.0 2.0 180 180
- 0.269412 1 2 cbr 1000 ------- 3 1.0 2.0 180 180
r 0.269859 1 2 cbr 1000 ------- 3 1.0 2.0 169 169
+ 0.270353 1 2 cbr 1000 ------- 3 1.0 2.0 181 181
- 0.270353 1 2 cbr 1000 ------- 3 1.0 2.0 181 181
r 0.2708 1 2 cbr 1000 ------- 3 1.0 2.0 170 170
+ 0.271294 1 2 cbr 1000 ------- 3 1.0 2.0 182 182
- 0.271294 1 2 cbr 1000 ------- 3 1.0 2.0 182 182
r 0.271741 1 2 cbr 1000 ------- 3 1.0 2.0 171 171
+ 0.272235 1 2 cbr 1000 ------- 3 1.0 2.0 183 183
- 0.272235 1 2 cbr 1000 ------- 3 1.0 2.0 183 183
r 0.272682 1 2 cbr 1000 ------- 3 1.0 2.0 172 172
+ 0.273176 1 2 cbr 1000 ------- 3 1.0 2.0 184 184
- 0.273176 1 2 cbr 1000 ------- 3 1.0 2.0 184 184
r 0.273624 1 2 cbr 1000 ------- 3 1.0 2.0 173 173
+ 0.274118 1 2 cbr 1000 ------- 3 1.0 2.0 185 185
- 0.274118 1 2 cbr 1000 ------- 3 1.0 2.0 185 185
r 0.274565 1 2 cbr 1000 ------- 3 1.0 2.0 174 174
+ 0.275059 1 2 cbr 1000 ------- 3 1.0 2.0 186 186
- 0.275059 1 2 cbr 1000 ------- 3 1.0 2.0 186 186
r 0.275506 1 2 cbr 1000 ------- 3 1.0 2.0 175 175
+ 0.276 1 2 cbr 1000 ------- 3 1.0 2.0 187 187
- 0.276 1 2 cbr 1000 ------- 3 1.0 2.0 187 187
r 0.276447 1 2 cbr 1000 ------- 3 1.0 2.0 176 176
+ 0.276941 1 2 cbr 1000 ------- 3 1.0 2.0 188 188
- 0.276941 1 2 cbr 1000 ------- 3 1.0 2.0 188 188
r 0.277388 1 2 cbr 1000 ------- 3 1.0 2.0 177 177
+ 0.277882 1 2 cbr 1000 ------- 3 1.0 2.0 189 189
- 0.277882 1 2 cbr 1000 ------- 3 1.0 2.0 189 189
r 0.278329 1 2 cbr 1000 ------- 3 1.0 2.0 178 178
+ 0.278824 1 2 cbr 1000 ------- 3 1.0 2.0 190 190
- 0.278824 1 2 cbr 1000 ------- 3 1.0 2.0 190 190
r 0.279271 1 2 cbr 1000 ------- 3 1.0 2.0 179 179
+ 0.279765 1 2 cbr 1000 ------- 3 1.0 2.0 191 191
- 0.279765 1 2 cbr 1000 ------- 3 1.0 2.0 191 191
r 0.280212 1 2 cbr 1000 ------- 3 1.0 2.0 180 180
+ 0.280706 1 2 cbr 1000 ------- 3 1.0 2.0 192 192
- 0.280706 1 2 cbr 1000 ------- 3 1.0 2.0 192 192
r 0.281153 1 2 cbr 1000 ------- 3 1.0 2.0 181 181
+ 0.281647 1 2 cbr 1000 ------- 3 1.0 2.0 193 193
- 0.281647 1 2 cbr 1000 ------- 3 1.0 2.0 193 193
r 0.282094 1 2 cbr 1000 ------- 3 1.0 2.0 182 182
+ 0.282588 1 2 cbr 1000 ------- 3 1.0 2.0 194 194
- 0.282588 1 2 cbr 1000 ------- 3 1.0 2.0 194 194
r 0.283035 1 2 cbr 1000 ------- 3 1.0 2.0 183 183
+ 0.283529 1 2 cbr 1000 ------- 3 1.0 2.0 195 195
- 0.283529 1 2 cbr 1000 ------- 3 1.0 2.0 195 195
r 0.283976 1 2 cbr 1000 ------- 3 1.0 2.0 184 184
+ 0.284471 1 2 cbr 1000 ------- 3 1.0 2.0 196 196
- 0.284471 1 2 cbr 1000 ------- 3 1.0 2.0 196 196
r 0.284918 1 2 cbr 1000 ------- 3 1.0 2.0 185 185
+ 0.285412 1 2 cbr 1000 ------- 3 1.0 2.0 197 197
- 0.285412 1 2 cbr 1000 ------- 3 1.0 2.0 197 197
r 0.285859 1 2 cbr 1000 ------- 3 1.0 2.0 186 186
+ 0.286353 1 2 cbr 1000 ------- 3 1.0 2.0 198 198
- 0.286353 1 2 cbr 1000 ------- 3 1.0 2.0 198 198
r 0.2868 1 2 cbr 1000 ------- 3 1.0 2.0 187 187
+ 0.287294 1 2 cbr 1000 ------- 3 1.0 2.0 199 199
- 0.287294 1 2 cbr 1000 ------- 3 1.0 2.0 199 199
r 0.287741 1 2 cbr 1000 ------- 3 1.0 2.0 188 188
+ 0.288235 1 2 cbr 1000 ------- 3 1.0 2.0 200 200
- 0.288235 1 2 cbr 1000 ------- 3 1.0 2.0 200 200
r 0.288682 1 2 cbr 1000 ------- 3 1.0 2.0 189 189
+ 0.289176 1 2 cbr 1000 ------- 3 1.0 2.0 201 201
- 0.289176 1 2 cbr 1000 ------- 3 1.0 2.0 201 201
r 0.289624 1 2 cbr 1000 ------- 3 1.0 2.0 190 190
+ 0.290118 1 2 cbr 1000 ------- 3 1.0 2.0 202 202
- 0.290118 1 2 cbr 1000 ------- 3 1.0 2.0 202 202
r 0.290565 1 2 cbr 1000 ------- 3 1.0 2.0 191 191
+ 0.291059 1 2 cbr 1000 ------- 3 1.0 2.0 203 203
- 0.291059 1 2 cbr 1000 ------- 3 1.0 2.0 203 203
r 0.291506 1 2 cbr 1000 ------- 3 1.0 2.0 192 192
+ 0.292 1 2 cbr 1000 ------- 3 1.0 2.0 204 204
- 0.292 1 2 cbr 1000 ------- 3 1.0 2.0 204 204
r 0.292447 1 2 cbr 1000 ------- 3 1.0 2.0 193 193
+ 0.292941 1 2 cbr 1000 ------- 3 1.0 2.0 205 205
- 0.292941 1 2 cbr 1000 ------- 3 1.0 2.0 205 205
r 0.293388 1 2 cbr 1000 ------- 3 1.0 2.0 194 194
+ 0.293882 1 2 cbr 1000 ------- 3 1.0 2.0 206 206
- 0.293882 1 2 cbr 1000 ------- 3 1.0 2.0 206 206
r 0.294329 1 2 cbr 1000 ------- 3 1.0 2.0 195 195
+ 0.294824 1 2 cbr 1000 ------- 3 1.0 2.0 207 207
- 0.294824 1 2 cbr 1000 ------- 3 1.0 2.0 207 207
r 0.295271 1 2 cbr 1000 ------- 3 1.0 2.0 196 196
+ 0.295765 1 2 cbr 1000 ------- 3 1.0 2.0 208 208
- 0.295765 1 2 cbr 1000 ------- 3 1.0 2.0 208 208